DF-ISE text

Info {
  version = 1.1
  type    = grid
  dimension   = 2
  nb_vertices = 16641
  nb_edges    = 49408
  nb_faces    = 0
  nb_elements = 33024
  nb_regions  = 3
  regions     = [ "SiliconCarbide_1" "cathode" "anode" ]
  materials   = [ SiliconCarbide Contact Contact ]
}

Data {

  CoordSystem {
    translate = [  0.000000000000000e+00 0.000000000000000e+00 0.000000000000000e+00 ]
    transform = [  1.000000000000000e+00 0.000000000000000e+00 0.000000000000000e+00
 0.000000000000000e+00 1.000000000000000e+00 0.000000000000000e+00
 0.000000000000000e+00 0.000000000000000e+00 1.000000000000000e+00
 ]
  }

  Vertices (16641) {
 3.125000000000000e+00 3.125000000000000e+00
 3.125000000000000e+00 -0.000000000000000e+00
 -0.000000000000000e+00 3.125000000000000e+00
 3.125000000000000e+00 6.250000000000000e+00
 -0.000000000000000e+00 6.250000000000000e+00
 6.250000000000000e+00 3.125000000000000e+00
 6.250000000000000e+00 -0.000000000000000e+00
 6.250000000000000e+00 6.250000000000000e+00
 3.125000000000000e+00 9.375000000000000e+00
 -0.000000000000000e+00 9.375000000000000e+00
 3.125000000000000e+00 1.250000000000000e+01
 -0.000000000000000e+00 1.250000000000000e+01
 6.250000000000000e+00 9.375000000000000e+00
 6.250000000000000e+00 1.250000000000000e+01
 9.375000000000000e+00 3.125000000000000e+00
 9.375000000000000e+00 -0.000000000000000e+00
 9.375000000000000e+00 6.250000000000000e+00
 1.250000000000000e+01 3.125000000000000e+00
 1.250000000000000e+01 -0.000000000000000e+00
 1.250000000000000e+01 6.250000000000000e+00
 9.375000000000000e+00 9.375000000000000e+00
 9.375000000000000e+00 1.250000000000000e+01
 1.250000000000000e+01 9.375000000000000e+00
 1.250000000000000e+01 1.250000000000000e+01
 3.125000000000000e+00 1.562500000000000e+01
 -0.000000000000000e+00 1.562500000000000e+01
 3.125000000000000e+00 1.875000000000000e+01
 -0.000000000000000e+00 1.875000000000000e+01
 6.250000000000000e+00 1.562500000000000e+01
 6.250000000000000e+00 1.875000000000000e+01
 3.125000000000000e+00 2.187500000000000e+01
 -0.000000000000000e+00 2.187500000000000e+01
 3.125000000000000e+00 2.500000000000000e+01
 -0.000000000000000e+00 2.500000000000000e+01
 6.250000000000000e+00 2.187500000000000e+01
 6.250000000000000e+00 2.500000000000000e+01
 9.375000000000000e+00 1.562500000000000e+01
 9.375000000000000e+00 1.875000000000000e+01
 1.250000000000000e+01 1.562500000000000e+01
 1.250000000000000e+01 1.875000000000000e+01
 9.375000000000000e+00 2.187500000000000e+01
 9.375000000000000e+00 2.500000000000000e+01
 1.250000000000000e+01 2.187500000000000e+01
 1.250000000000000e+01 2.500000000000000e+01
 1.562500000000000e+01 3.125000000000000e+00
 1.562500000000000e+01 -0.000000000000000e+00
 1.562500000000000e+01 6.250000000000000e+00
 1.875000000000000e+01 3.125000000000000e+00
 1.875000000000000e+01 -0.000000000000000e+00
 1.875000000000000e+01 6.250000000000000e+00
 1.562500000000000e+01 9.375000000000000e+00
 1.562500000000000e+01 1.250000000000000e+01
 1.875000000000000e+01 9.375000000000000e+00
 1.875000000000000e+01 1.250000000000000e+01
 2.187500000000000e+01 3.125000000000000e+00
 2.187500000000000e+01 -0.000000000000000e+00
 2.187500000000000e+01 6.250000000000000e+00
 2.500000000000000e+01 3.125000000000000e+00
 2.500000000000000e+01 -0.000000000000000e+00
 2.500000000000000e+01 6.250000000000000e+00
 2.187500000000000e+01 9.375000000000000e+00
 2.187500000000000e+01 1.250000000000000e+01
 2.500000000000000e+01 9.375000000000000e+00
 2.500000000000000e+01 1.250000000000000e+01
 1.562500000000000e+01 1.562500000000000e+01
 1.562500000000000e+01 1.875000000000000e+01
 1.875000000000000e+01 1.562500000000000e+01
 1.875000000000000e+01 1.875000000000000e+01
 1.562500000000000e+01 2.187500000000000e+01
 1.562500000000000e+01 2.500000000000000e+01
 1.875000000000000e+01 2.187500000000000e+01
 1.875000000000000e+01 2.500000000000000e+01
 2.187500000000000e+01 1.562500000000000e+01
 2.187500000000000e+01 1.875000000000000e+01
 2.500000000000000e+01 1.562500000000000e+01
 2.500000000000000e+01 1.875000000000000e+01
 2.187500000000000e+01 2.187500000000000e+01
 2.187500000000000e+01 2.500000000000000e+01
 2.500000000000000e+01 2.187500000000000e+01
 2.500000000000000e+01 2.500000000000000e+01
 3.125000000000000e+00 2.812500000000000e+01
 -0.000000000000000e+00 2.812500000000000e+01
 3.125000000000000e+00 3.125000000000000e+01
 -0.000000000000000e+00 3.125000000000000e+01
 6.250000000000000e+00 2.812500000000000e+01
 6.250000000000000e+00 3.125000000000000e+01
 3.125000000000000e+00 3.437500000000000e+01
 -0.000000000000000e+00 3.437500000000000e+01
 3.125000000000000e+00 3.750000000000000e+01
 -0.000000000000000e+00 3.750000000000000e+01
 6.250000000000000e+00 3.437500000000000e+01
 6.250000000000000e+00 3.750000000000000e+01
 9.375000000000000e+00 2.812500000000000e+01
 9.375000000000000e+00 3.125000000000000e+01
 1.250000000000000e+01 2.812500000000000e+01
 1.250000000000000e+01 3.125000000000000e+01
 9.375000000000000e+00 3.437500000000000e+01
 9.375000000000000e+00 3.750000000000000e+01
 1.250000000000000e+01 3.437500000000000e+01
 1.250000000000000e+01 3.750000000000000e+01
 3.125000000000000e+00 4.062500000000000e+01
 -0.000000000000000e+00 4.062500000000000e+01
 3.125000000000000e+00 4.375000000000000e+01
 -0.000000000000000e+00 4.375000000000000e+01
 6.250000000000000e+00 4.062500000000000e+01
 6.250000000000000e+00 4.375000000000000e+01
 3.125000000000000e+00 4.687500000000000e+01
 -0.000000000000000e+00 4.687500000000000e+01
 3.125000000000000e+00 5.000000000000000e+01
 -0.000000000000000e+00 5.000000000000000e+01
 6.250000000000000e+00 4.687500000000000e+01
 6.250000000000000e+00 5.000000000000000e+01
 9.375000000000000e+00 4.062500000000000e+01
 9.375000000000000e+00 4.375000000000000e+01
 1.250000000000000e+01 4.062500000000000e+01
 1.250000000000000e+01 4.375000000000000e+01
 9.375000000000000e+00 4.687500000000000e+01
 9.375000000000000e+00 5.000000000000000e+01
 1.250000000000000e+01 4.687500000000000e+01
 1.250000000000000e+01 5.000000000000000e+01
 1.562500000000000e+01 2.812500000000000e+01
 1.562500000000000e+01 3.125000000000000e+01
 1.875000000000000e+01 2.812500000000000e+01
 1.875000000000000e+01 3.125000000000000e+01
 1.562500000000000e+01 3.437500000000000e+01
 1.562500000000000e+01 3.750000000000000e+01
 1.875000000000000e+01 3.437500000000000e+01
 1.875000000000000e+01 3.750000000000000e+01
 2.187500000000000e+01 2.812500000000000e+01
 2.187500000000000e+01 3.125000000000000e+01
 2.500000000000000e+01 2.812500000000000e+01
 2.500000000000000e+01 3.125000000000000e+01
 2.187500000000000e+01 3.437500000000000e+01
 2.187500000000000e+01 3.750000000000000e+01
 2.500000000000000e+01 3.437500000000000e+01
 2.500000000000000e+01 3.750000000000000e+01
 1.562500000000000e+01 4.062500000000000e+01
 1.562500000000000e+01 4.375000000000000e+01
 1.875000000000000e+01 4.062500000000000e+01
 1.875000000000000e+01 4.375000000000000e+01
 1.562500000000000e+01 4.687500000000000e+01
 1.562500000000000e+01 5.000000000000000e+01
 1.875000000000000e+01 4.687500000000000e+01
 1.875000000000000e+01 5.000000000000000e+01
 2.187500000000000e+01 4.062500000000000e+01
 2.187500000000000e+01 4.375000000000000e+01
 2.500000000000000e+01 4.062500000000000e+01
 2.500000000000000e+01 4.375000000000000e+01
 2.187500000000000e+01 4.687500000000000e+01
 2.187500000000000e+01 5.000000000000000e+01
 2.500000000000000e+01 4.687500000000000e+01
 2.500000000000000e+01 5.000000000000000e+01
 2.812500000000000e+01 3.125000000000000e+00
 2.812500000000000e+01 -0.000000000000000e+00
 2.812500000000000e+01 6.250000000000000e+00
 3.125000000000000e+01 3.125000000000000e+00
 3.125000000000000e+01 -0.000000000000000e+00
 3.125000000000000e+01 6.250000000000000e+00
 2.812500000000000e+01 9.375000000000000e+00
 2.812500000000000e+01 1.250000000000000e+01
 3.125000000000000e+01 9.375000000000000e+00
 3.125000000000000e+01 1.250000000000000e+01
 3.437500000000000e+01 3.125000000000000e+00
 3.437500000000000e+01 -0.000000000000000e+00
 3.437500000000000e+01 6.250000000000000e+00
 3.750000000000000e+01 3.125000000000000e+00
 3.750000000000000e+01 -0.000000000000000e+00
 3.750000000000000e+01 6.250000000000000e+00
 3.437500000000000e+01 9.375000000000000e+00
 3.437500000000000e+01 1.250000000000000e+01
 3.750000000000000e+01 9.375000000000000e+00
 3.750000000000000e+01 1.250000000000000e+01
 2.812500000000000e+01 1.562500000000000e+01
 2.812500000000000e+01 1.875000000000000e+01
 3.125000000000000e+01 1.562500000000000e+01
 3.125000000000000e+01 1.875000000000000e+01
 2.812500000000000e+01 2.187500000000000e+01
 2.812500000000000e+01 2.500000000000000e+01
 3.125000000000000e+01 2.187500000000000e+01
 3.125000000000000e+01 2.500000000000000e+01
 3.437500000000000e+01 1.562500000000000e+01
 3.437500000000000e+01 1.875000000000000e+01
 3.750000000000000e+01 1.562500000000000e+01
 3.750000000000000e+01 1.875000000000000e+01
 3.437500000000000e+01 2.187500000000000e+01
 3.437500000000000e+01 2.500000000000000e+01
 3.750000000000000e+01 2.187500000000000e+01
 3.750000000000000e+01 2.500000000000000e+01
 4.062500000000000e+01 3.125000000000000e+00
 4.062500000000000e+01 -0.000000000000000e+00
 4.062500000000000e+01 6.250000000000000e+00
 4.375000000000000e+01 3.125000000000000e+00
 4.375000000000000e+01 -0.000000000000000e+00
 4.375000000000000e+01 6.250000000000000e+00
 4.062500000000000e+01 9.375000000000000e+00
 4.062500000000000e+01 1.250000000000000e+01
 4.375000000000000e+01 9.375000000000000e+00
 4.375000000000000e+01 1.250000000000000e+01
 4.687500000000000e+01 3.125000000000000e+00
 4.687500000000000e+01 -0.000000000000000e+00
 4.687500000000000e+01 6.250000000000000e+00
 5.000000000000000e+01 3.125000000000000e+00
 5.000000000000000e+01 -0.000000000000000e+00
 5.000000000000000e+01 6.250000000000000e+00
 4.687500000000000e+01 9.375000000000000e+00
 4.687500000000000e+01 1.250000000000000e+01
 5.000000000000000e+01 9.375000000000000e+00
 5.000000000000000e+01 1.250000000000000e+01
 4.062500000000000e+01 1.562500000000000e+01
 4.062500000000000e+01 1.875000000000000e+01
 4.375000000000000e+01 1.562500000000000e+01
 4.375000000000000e+01 1.875000000000000e+01
 4.062500000000000e+01 2.187500000000000e+01
 4.062500000000000e+01 2.500000000000000e+01
 4.375000000000000e+01 2.187500000000000e+01
 4.375000000000000e+01 2.500000000000000e+01
 4.687500000000000e+01 1.562500000000000e+01
 4.687500000000000e+01 1.875000000000000e+01
 5.000000000000000e+01 1.562500000000000e+01
 5.000000000000000e+01 1.875000000000000e+01
 4.687500000000000e+01 2.187500000000000e+01
 4.687500000000000e+01 2.500000000000000e+01
 5.000000000000000e+01 2.187500000000000e+01
 5.000000000000000e+01 2.500000000000000e+01
 2.812500000000000e+01 2.812500000000000e+01
 2.812500000000000e+01 3.125000000000000e+01
 3.125000000000000e+01 2.812500000000000e+01
 3.125000000000000e+01 3.125000000000000e+01
 2.812500000000000e+01 3.437500000000000e+01
 2.812500000000000e+01 3.750000000000000e+01
 3.125000000000000e+01 3.437500000000000e+01
 3.125000000000000e+01 3.750000000000000e+01
 3.437500000000000e+01 2.812500000000000e+01
 3.437500000000000e+01 3.125000000000000e+01
 3.750000000000000e+01 2.812500000000000e+01
 3.750000000000000e+01 3.125000000000000e+01
 3.437500000000000e+01 3.437500000000000e+01
 3.437500000000000e+01 3.750000000000000e+01
 3.750000000000000e+01 3.437500000000000e+01
 3.750000000000000e+01 3.750000000000000e+01
 2.812500000000000e+01 4.062500000000000e+01
 2.812500000000000e+01 4.375000000000000e+01
 3.125000000000000e+01 4.062500000000000e+01
 3.125000000000000e+01 4.375000000000000e+01
 2.812500000000000e+01 4.687500000000000e+01
 2.812500000000000e+01 5.000000000000000e+01
 3.125000000000000e+01 4.687500000000000e+01
 3.125000000000000e+01 5.000000000000000e+01
 3.437500000000000e+01 4.062500000000000e+01
 3.437500000000000e+01 4.375000000000000e+01
 3.750000000000000e+01 4.062500000000000e+01
 3.750000000000000e+01 4.375000000000000e+01
 3.437500000000000e+01 4.687500000000000e+01
 3.437500000000000e+01 5.000000000000000e+01
 3.750000000000000e+01 4.687500000000000e+01
 3.750000000000000e+01 5.000000000000000e+01
 4.062500000000000e+01 2.812500000000000e+01
 4.062500000000000e+01 3.125000000000000e+01
 4.375000000000000e+01 2.812500000000000e+01
 4.375000000000000e+01 3.125000000000000e+01
 4.062500000000000e+01 3.437500000000000e+01
 4.062500000000000e+01 3.750000000000000e+01
 4.375000000000000e+01 3.437500000000000e+01
 4.375000000000000e+01 3.750000000000000e+01
 4.687500000000000e+01 2.812500000000000e+01
 4.687500000000000e+01 3.125000000000000e+01
 5.000000000000000e+01 2.812500000000000e+01
 5.000000000000000e+01 3.125000000000000e+01
 4.687500000000000e+01 3.437500000000000e+01
 4.687500000000000e+01 3.750000000000000e+01
 5.000000000000000e+01 3.437500000000000e+01
 5.000000000000000e+01 3.750000000000000e+01
 4.062500000000000e+01 4.062500000000000e+01
 4.062500000000000e+01 4.375000000000000e+01
 4.375000000000000e+01 4.062500000000000e+01
 4.375000000000000e+01 4.375000000000000e+01
 4.062500000000000e+01 4.687500000000000e+01
 4.062500000000000e+01 5.000000000000000e+01
 4.375000000000000e+01 4.687500000000000e+01
 4.375000000000000e+01 5.000000000000000e+01
 4.687500000000000e+01 4.062500000000000e+01
 4.687500000000000e+01 4.375000000000000e+01
 5.000000000000000e+01 4.062500000000000e+01
 5.000000000000000e+01 4.375000000000000e+01
 4.687500000000000e+01 4.687500000000000e+01
 4.687500000000000e+01 5.000000000000000e+01
 5.000000000000000e+01 4.687500000000000e+01
 5.000000000000000e+01 5.000000000000000e+01
 3.125000000000000e+00 5.312500000000000e+01
 -0.000000000000000e+00 5.312500000000000e+01
 3.125000000000000e+00 5.625000000000000e+01
 -0.000000000000000e+00 5.625000000000000e+01
 6.250000000000000e+00 5.312500000000000e+01
 6.250000000000000e+00 5.625000000000000e+01
 3.125000000000000e+00 5.937500000000000e+01
 -0.000000000000000e+00 5.937500000000000e+01
 3.125000000000000e+00 6.250000000000000e+01
 -0.000000000000000e+00 6.250000000000000e+01
 6.250000000000000e+00 5.937500000000000e+01
 6.250000000000000e+00 6.250000000000000e+01
 9.375000000000000e+00 5.312500000000000e+01
 9.375000000000000e+00 5.625000000000000e+01
 1.250000000000000e+01 5.312500000000000e+01
 1.250000000000000e+01 5.625000000000000e+01
 9.375000000000000e+00 5.937500000000000e+01
 9.375000000000000e+00 6.250000000000000e+01
 1.250000000000000e+01 5.937500000000000e+01
 1.250000000000000e+01 6.250000000000000e+01
 3.125000000000000e+00 6.562500000000000e+01
 -0.000000000000000e+00 6.562500000000000e+01
 3.125000000000000e+00 6.875000000000000e+01
 -0.000000000000000e+00 6.875000000000000e+01
 6.250000000000000e+00 6.562500000000000e+01
 6.250000000000000e+00 6.875000000000000e+01
 3.125000000000000e+00 7.187500000000000e+01
 -0.000000000000000e+00 7.187500000000000e+01
 3.125000000000000e+00 7.500000000000000e+01
 -0.000000000000000e+00 7.500000000000000e+01
 6.250000000000000e+00 7.187500000000000e+01
 6.250000000000000e+00 7.500000000000000e+01
 9.375000000000000e+00 6.562500000000000e+01
 9.375000000000000e+00 6.875000000000000e+01
 1.250000000000000e+01 6.562500000000000e+01
 1.250000000000000e+01 6.875000000000000e+01
 9.375000000000000e+00 7.187500000000000e+01
 9.375000000000000e+00 7.500000000000000e+01
 1.250000000000000e+01 7.187500000000000e+01
 1.250000000000000e+01 7.500000000000000e+01
 1.562500000000000e+01 5.312500000000000e+01
 1.562500000000000e+01 5.625000000000000e+01
 1.875000000000000e+01 5.312500000000000e+01
 1.875000000000000e+01 5.625000000000000e+01
 1.562500000000000e+01 5.937500000000000e+01
 1.562500000000000e+01 6.250000000000000e+01
 1.875000000000000e+01 5.937500000000000e+01
 1.875000000000000e+01 6.250000000000000e+01
 2.187500000000000e+01 5.312500000000000e+01
 2.187500000000000e+01 5.625000000000000e+01
 2.500000000000000e+01 5.312500000000000e+01
 2.500000000000000e+01 5.625000000000000e+01
 2.187500000000000e+01 5.937500000000000e+01
 2.187500000000000e+01 6.250000000000000e+01
 2.500000000000000e+01 5.937500000000000e+01
 2.500000000000000e+01 6.250000000000000e+01
 1.562500000000000e+01 6.562500000000000e+01
 1.562500000000000e+01 6.875000000000000e+01
 1.875000000000000e+01 6.562500000000000e+01
 1.875000000000000e+01 6.875000000000000e+01
 1.562500000000000e+01 7.187500000000000e+01
 1.562500000000000e+01 7.500000000000000e+01
 1.875000000000000e+01 7.187500000000000e+01
 1.875000000000000e+01 7.500000000000000e+01
 2.187500000000000e+01 6.562500000000000e+01
 2.187500000000000e+01 6.875000000000000e+01
 2.500000000000000e+01 6.562500000000000e+01
 2.500000000000000e+01 6.875000000000000e+01
 2.187500000000000e+01 7.187500000000000e+01
 2.187500000000000e+01 7.500000000000000e+01
 2.500000000000000e+01 7.187500000000000e+01
 2.500000000000000e+01 7.500000000000000e+01
 3.125000000000000e+00 7.812500000000000e+01
 -0.000000000000000e+00 7.812500000000000e+01
 3.125000000000000e+00 8.125000000000000e+01
 -0.000000000000000e+00 8.125000000000000e+01
 6.250000000000000e+00 7.812500000000000e+01
 6.250000000000000e+00 8.125000000000000e+01
 3.125000000000000e+00 8.437500000000000e+01
 -0.000000000000000e+00 8.437500000000000e+01
 3.125000000000000e+00 8.750000000000000e+01
 -0.000000000000000e+00 8.750000000000000e+01
 6.250000000000000e+00 8.437500000000000e+01
 6.250000000000000e+00 8.750000000000000e+01
 9.375000000000000e+00 7.812500000000000e+01
 9.375000000000000e+00 8.125000000000000e+01
 1.250000000000000e+01 7.812500000000000e+01
 1.250000000000000e+01 8.125000000000000e+01
 9.375000000000000e+00 8.437500000000000e+01
 9.375000000000000e+00 8.750000000000000e+01
 1.250000000000000e+01 8.437500000000000e+01
 1.250000000000000e+01 8.750000000000000e+01
 3.125000000000000e+00 9.062500000000000e+01
 -0.000000000000000e+00 9.062500000000000e+01
 3.125000000000000e+00 9.375000000000000e+01
 -0.000000000000000e+00 9.375000000000000e+01
 6.250000000000000e+00 9.062500000000000e+01
 6.250000000000000e+00 9.375000000000000e+01
 3.125000000000000e+00 9.687500000000000e+01
 -0.000000000000000e+00 9.687500000000000e+01
 3.125000000000000e+00 1.000000000000000e+02
 -0.000000000000000e+00 1.000000000000000e+02
 6.250000000000000e+00 9.687500000000000e+01
 6.250000000000000e+00 1.000000000000000e+02
 9.375000000000000e+00 9.062500000000000e+01
 9.375000000000000e+00 9.375000000000000e+01
 1.250000000000000e+01 9.062500000000000e+01
 1.250000000000000e+01 9.375000000000000e+01
 9.375000000000000e+00 9.687500000000000e+01
 9.375000000000000e+00 1.000000000000000e+02
 1.250000000000000e+01 9.687500000000000e+01
 1.250000000000000e+01 1.000000000000000e+02
 1.562500000000000e+01 7.812500000000000e+01
 1.562500000000000e+01 8.125000000000000e+01
 1.875000000000000e+01 7.812500000000000e+01
 1.875000000000000e+01 8.125000000000000e+01
 1.562500000000000e+01 8.437500000000000e+01
 1.562500000000000e+01 8.750000000000000e+01
 1.875000000000000e+01 8.437500000000000e+01
 1.875000000000000e+01 8.750000000000000e+01
 2.187500000000000e+01 7.812500000000000e+01
 2.187500000000000e+01 8.125000000000000e+01
 2.500000000000000e+01 7.812500000000000e+01
 2.500000000000000e+01 8.125000000000000e+01
 2.187500000000000e+01 8.437500000000000e+01
 2.187500000000000e+01 8.750000000000000e+01
 2.500000000000000e+01 8.437500000000000e+01
 2.500000000000000e+01 8.750000000000000e+01
 1.562500000000000e+01 9.062500000000000e+01
 1.562500000000000e+01 9.375000000000000e+01
 1.875000000000000e+01 9.062500000000000e+01
 1.875000000000000e+01 9.375000000000000e+01
 1.562500000000000e+01 9.687500000000000e+01
 1.562500000000000e+01 1.000000000000000e+02
 1.875000000000000e+01 9.687500000000000e+01
 1.875000000000000e+01 1.000000000000000e+02
 2.187500000000000e+01 9.062500000000000e+01
 2.187500000000000e+01 9.375000000000000e+01
 2.500000000000000e+01 9.062500000000000e+01
 2.500000000000000e+01 9.375000000000000e+01
 2.187500000000000e+01 9.687500000000000e+01
 2.187500000000000e+01 1.000000000000000e+02
 2.500000000000000e+01 9.687500000000000e+01
 2.500000000000000e+01 1.000000000000000e+02
 2.812500000000000e+01 5.312500000000000e+01
 2.812500000000000e+01 5.625000000000000e+01
 3.125000000000000e+01 5.312500000000000e+01
 3.125000000000000e+01 5.625000000000000e+01
 2.812500000000000e+01 5.937500000000000e+01
 2.812500000000000e+01 6.250000000000000e+01
 3.125000000000000e+01 5.937500000000000e+01
 3.125000000000000e+01 6.250000000000000e+01
 3.437500000000000e+01 5.312500000000000e+01
 3.437500000000000e+01 5.625000000000000e+01
 3.750000000000000e+01 5.312500000000000e+01
 3.750000000000000e+01 5.625000000000000e+01
 3.437500000000000e+01 5.937500000000000e+01
 3.437500000000000e+01 6.250000000000000e+01
 3.750000000000000e+01 5.937500000000000e+01
 3.750000000000000e+01 6.250000000000000e+01
 2.812500000000000e+01 6.562500000000000e+01
 2.812500000000000e+01 6.875000000000000e+01
 3.125000000000000e+01 6.562500000000000e+01
 3.125000000000000e+01 6.875000000000000e+01
 2.812500000000000e+01 7.187500000000000e+01
 2.812500000000000e+01 7.500000000000000e+01
 3.125000000000000e+01 7.187500000000000e+01
 3.125000000000000e+01 7.500000000000000e+01
 3.437500000000000e+01 6.562500000000000e+01
 3.437500000000000e+01 6.875000000000000e+01
 3.750000000000000e+01 6.562500000000000e+01
 3.750000000000000e+01 6.875000000000000e+01
 3.437500000000000e+01 7.187500000000000e+01
 3.437500000000000e+01 7.500000000000000e+01
 3.750000000000000e+01 7.187500000000000e+01
 3.750000000000000e+01 7.500000000000000e+01
 4.062500000000000e+01 5.312500000000000e+01
 4.062500000000000e+01 5.625000000000000e+01
 4.375000000000000e+01 5.312500000000000e+01
 4.375000000000000e+01 5.625000000000000e+01
 4.062500000000000e+01 5.937500000000000e+01
 4.062500000000000e+01 6.250000000000000e+01
 4.375000000000000e+01 5.937500000000000e+01
 4.375000000000000e+01 6.250000000000000e+01
 4.687500000000000e+01 5.312500000000000e+01
 4.687500000000000e+01 5.625000000000000e+01
 5.000000000000000e+01 5.312500000000000e+01
 5.000000000000000e+01 5.625000000000000e+01
 4.687500000000000e+01 5.937500000000000e+01
 4.687500000000000e+01 6.250000000000000e+01
 5.000000000000000e+01 5.937500000000000e+01
 5.000000000000000e+01 6.250000000000000e+01
 4.062500000000000e+01 6.562500000000000e+01
 4.062500000000000e+01 6.875000000000000e+01
 4.375000000000000e+01 6.562500000000000e+01
 4.375000000000000e+01 6.875000000000000e+01
 4.062500000000000e+01 7.187500000000000e+01
 4.062500000000000e+01 7.500000000000000e+01
 4.375000000000000e+01 7.187500000000000e+01
 4.375000000000000e+01 7.500000000000000e+01
 4.687500000000000e+01 6.562500000000000e+01
 4.687500000000000e+01 6.875000000000000e+01
 5.000000000000000e+01 6.562500000000000e+01
 5.000000000000000e+01 6.875000000000000e+01
 4.687500000000000e+01 7.187500000000000e+01
 4.687500000000000e+01 7.500000000000000e+01
 5.000000000000000e+01 7.187500000000000e+01
 5.000000000000000e+01 7.500000000000000e+01
 2.812500000000000e+01 7.812500000000000e+01
 2.812500000000000e+01 8.125000000000000e+01
 3.125000000000000e+01 7.812500000000000e+01
 3.125000000000000e+01 8.125000000000000e+01
 2.812500000000000e+01 8.437500000000000e+01
 2.812500000000000e+01 8.750000000000000e+01
 3.125000000000000e+01 8.437500000000000e+01
 3.125000000000000e+01 8.750000000000000e+01
 3.437500000000000e+01 7.812500000000000e+01
 3.437500000000000e+01 8.125000000000000e+01
 3.750000000000000e+01 7.812500000000000e+01
 3.750000000000000e+01 8.125000000000000e+01
 3.437500000000000e+01 8.437500000000000e+01
 3.437500000000000e+01 8.750000000000000e+01
 3.750000000000000e+01 8.437500000000000e+01
 3.750000000000000e+01 8.750000000000000e+01
 2.812500000000000e+01 9.062500000000000e+01
 2.812500000000000e+01 9.375000000000000e+01
 3.125000000000000e+01 9.062500000000000e+01
 3.125000000000000e+01 9.375000000000000e+01
 2.812500000000000e+01 9.687500000000000e+01
 2.812500000000000e+01 1.000000000000000e+02
 3.125000000000000e+01 9.687500000000000e+01
 3.125000000000000e+01 1.000000000000000e+02
 3.437500000000000e+01 9.062500000000000e+01
 3.437500000000000e+01 9.375000000000000e+01
 3.750000000000000e+01 9.062500000000000e+01
 3.750000000000000e+01 9.375000000000000e+01
 3.437500000000000e+01 9.687500000000000e+01
 3.437500000000000e+01 1.000000000000000e+02
 3.750000000000000e+01 9.687500000000000e+01
 3.750000000000000e+01 1.000000000000000e+02
 4.062500000000000e+01 7.812500000000000e+01
 4.062500000000000e+01 8.125000000000000e+01
 4.375000000000000e+01 7.812500000000000e+01
 4.375000000000000e+01 8.125000000000000e+01
 4.062500000000000e+01 8.437500000000000e+01
 4.062500000000000e+01 8.750000000000000e+01
 4.375000000000000e+01 8.437500000000000e+01
 4.375000000000000e+01 8.750000000000000e+01
 4.687500000000000e+01 7.812500000000000e+01
 4.687500000000000e+01 8.125000000000000e+01
 5.000000000000000e+01 7.812500000000000e+01
 5.000000000000000e+01 8.125000000000000e+01
 4.687500000000000e+01 8.437500000000000e+01
 4.687500000000000e+01 8.750000000000000e+01
 5.000000000000000e+01 8.437500000000000e+01
 5.000000000000000e+01 8.750000000000000e+01
 4.062500000000000e+01 9.062500000000000e+01
 4.062500000000000e+01 9.375000000000000e+01
 4.375000000000000e+01 9.062500000000000e+01
 4.375000000000000e+01 9.375000000000000e+01
 4.062500000000000e+01 9.687500000000000e+01
 4.062500000000000e+01 1.000000000000000e+02
 4.375000000000000e+01 9.687500000000000e+01
 4.375000000000000e+01 1.000000000000000e+02
 4.687500000000000e+01 9.062500000000000e+01
 4.687500000000000e+01 9.375000000000000e+01
 5.000000000000000e+01 9.062500000000000e+01
 5.000000000000000e+01 9.375000000000000e+01
 4.687500000000000e+01 9.687500000000000e+01
 4.687500000000000e+01 1.000000000000000e+02
 5.000000000000000e+01 9.687500000000000e+01
 5.000000000000000e+01 1.000000000000000e+02
 5.312500000000000e+01 3.125000000000000e+00
 5.312500000000000e+01 -0.000000000000000e+00
 5.312500000000000e+01 6.250000000000000e+00
 5.625000000000000e+01 3.125000000000000e+00
 5.625000000000000e+01 -0.000000000000000e+00
 5.625000000000000e+01 6.250000000000000e+00
 5.312500000000000e+01 9.375000000000000e+00
 5.312500000000000e+01 1.250000000000000e+01
 5.625000000000000e+01 9.375000000000000e+00
 5.625000000000000e+01 1.250000000000000e+01
 5.937500000000000e+01 3.125000000000000e+00
 5.937500000000000e+01 -0.000000000000000e+00
 5.937500000000000e+01 6.250000000000000e+00
 6.250000000000000e+01 3.125000000000000e+00
 6.250000000000000e+01 -0.000000000000000e+00
 6.250000000000000e+01 6.250000000000000e+00
 5.937500000000000e+01 9.375000000000000e+00
 5.937500000000000e+01 1.250000000000000e+01
 6.250000000000000e+01 9.375000000000000e+00
 6.250000000000000e+01 1.250000000000000e+01
 5.312500000000000e+01 1.562500000000000e+01
 5.312500000000000e+01 1.875000000000000e+01
 5.625000000000000e+01 1.562500000000000e+01
 5.625000000000000e+01 1.875000000000000e+01
 5.312500000000000e+01 2.187500000000000e+01
 5.312500000000000e+01 2.500000000000000e+01
 5.625000000000000e+01 2.187500000000000e+01
 5.625000000000000e+01 2.500000000000000e+01
 5.937500000000000e+01 1.562500000000000e+01
 5.937500000000000e+01 1.875000000000000e+01
 6.250000000000000e+01 1.562500000000000e+01
 6.250000000000000e+01 1.875000000000000e+01
 5.937500000000000e+01 2.187500000000000e+01
 5.937500000000000e+01 2.500000000000000e+01
 6.250000000000000e+01 2.187500000000000e+01
 6.250000000000000e+01 2.500000000000000e+01
 6.562500000000000e+01 3.125000000000000e+00
 6.562500000000000e+01 -0.000000000000000e+00
 6.562500000000000e+01 6.250000000000000e+00
 6.875000000000000e+01 3.125000000000000e+00
 6.875000000000000e+01 -0.000000000000000e+00
 6.875000000000000e+01 6.250000000000000e+00
 6.562500000000000e+01 9.375000000000000e+00
 6.562500000000000e+01 1.250000000000000e+01
 6.875000000000000e+01 9.375000000000000e+00
 6.875000000000000e+01 1.250000000000000e+01
 7.187500000000000e+01 3.125000000000000e+00
 7.187500000000000e+01 -0.000000000000000e+00
 7.187500000000000e+01 6.250000000000000e+00
 7.500000000000000e+01 3.125000000000000e+00
 7.500000000000000e+01 -0.000000000000000e+00
 7.500000000000000e+01 6.250000000000000e+00
 7.187500000000000e+01 9.375000000000000e+00
 7.187500000000000e+01 1.250000000000000e+01
 7.500000000000000e+01 9.375000000000000e+00
 7.500000000000000e+01 1.250000000000000e+01
 6.562500000000000e+01 1.562500000000000e+01
 6.562500000000000e+01 1.875000000000000e+01
 6.875000000000000e+01 1.562500000000000e+01
 6.875000000000000e+01 1.875000000000000e+01
 6.562500000000000e+01 2.187500000000000e+01
 6.562500000000000e+01 2.500000000000000e+01
 6.875000000000000e+01 2.187500000000000e+01
 6.875000000000000e+01 2.500000000000000e+01
 7.187500000000000e+01 1.562500000000000e+01
 7.187500000000000e+01 1.875000000000000e+01
 7.500000000000000e+01 1.562500000000000e+01
 7.500000000000000e+01 1.875000000000000e+01
 7.187500000000000e+01 2.187500000000000e+01
 7.187500000000000e+01 2.500000000000000e+01
 7.500000000000000e+01 2.187500000000000e+01
 7.500000000000000e+01 2.500000000000000e+01
 5.312500000000000e+01 2.812500000000000e+01
 5.312500000000000e+01 3.125000000000000e+01
 5.625000000000000e+01 2.812500000000000e+01
 5.625000000000000e+01 3.125000000000000e+01
 5.312500000000000e+01 3.437500000000000e+01
 5.312500000000000e+01 3.750000000000000e+01
 5.625000000000000e+01 3.437500000000000e+01
 5.625000000000000e+01 3.750000000000000e+01
 5.937500000000000e+01 2.812500000000000e+01
 5.937500000000000e+01 3.125000000000000e+01
 6.250000000000000e+01 2.812500000000000e+01
 6.250000000000000e+01 3.125000000000000e+01
 5.937500000000000e+01 3.437500000000000e+01
 5.937500000000000e+01 3.750000000000000e+01
 6.250000000000000e+01 3.437500000000000e+01
 6.250000000000000e+01 3.750000000000000e+01
 5.312500000000000e+01 4.062500000000000e+01
 5.312500000000000e+01 4.375000000000000e+01
 5.625000000000000e+01 4.062500000000000e+01